# vtk DataFile Version 3.0
Plate example
ASCII

DATASET UNSTRUCTURED_GRID
POINTS 36 float
0 0 0
0 0.125 0
0 0.166667 0
0.0625 0 0
0.05 0.05 0
0.0416667 0.0833333 0
0.0714286 0 0
0.0625 0.03125 0
0.0555556 0.0555556 0
0 0.05 0
0 0.0681818 0
0 0.0833333 0
0.0192308 0.0384615 0
0.0178571 0.0535714 0
0.0166667 0.0666667 0
0.03125 0.03125 0
0.0294118 0.0441176 0
0.0277778 0.0555556 0
0.0263158 0 0
0.025 0.0125 0
0.0238095 0.0238095 0
0.0340909 0 0
0.0326087 0.0108696 0
0.03125 0.0208333 0
0.04 0 0
0.0384615 0.00961538 0
0.037037 0.0185185 0
0.0178571 0.0178571 0
0.0172414 0.0258621 0
0.0166667 0.0333333 0
0.0241935 0.016129 0
0.0234375 0.0234375 0
0.0227273 0.030303 0
0.0294118 0.0147059 0
0.0285714 0.0214286 0
0.0277778 0.0277778 0

CELLS 16 80
4 0 1 3 4
4 1 2 4 5
4 3 4 6 7
4 4 5 7 8
4 9 10 12 13
4 10 11 13 14
4 12 13 15 16
4 13 14 16 17
4 18 19 21 22
4 19 20 22 23
4 21 22 24 25
4 22 23 25 26
4 27 28 30 31
4 28 29 31 32
4 30 31 33 34
4 31 32 34 35

CELL_TYPES 16
8
8
8
8
8
8
8
8
8
8
8
8
8
8
8
8

POINT_DATA 36
SCALARS concentration float 1
LOOKUP_TABLE default
1
0.125
0
0.25
0.159808
0.0446597
0.142857
0.130187
0.092098
0
0
0
0.0206122
-0.0105073
0
0.0518051
0.0265779
0
0.0526316
0.0520749
0.0394706
0.0340909
0.0359004
0.0406402
0
0
0
0.0296029
0.0155801
0
0.0314634
0.0257762
0
0
0
0
SCALARS fine_scale_sol float 1
LOOKUP_TABLE default
0.118025
0.0471512
-0.0237223
0.0353864
0.0249527
0.014519
-0.047252
0.0027541
0.0527602
0.184709
0.169254
0.153798
0.0774827
0.0310375
-0.0154076
-0.0297439
-0.107179
-0.184614
0.0398629
-0.191611
-0.423084
0.149745
0.208682
0.267618
0.259628
0.608974
0.95832
-0.353962
-0.284866
-0.215771
-0.0235616
0.229582
0.482726
0.306838
0.744031
1.18122
